{ "arrayContent": [
{
    "RecordNumber" : "3",
    "RecordType" : "AtomicNumber",
    "ElementName" : "Lithium",
    "PropertyName" : "Atomic Weight",
    "PropertyValueString" : "[6.938, 6.997]",
    "ReferenceNumber" : "3"
},
{
    "RecordNumber" : "3",
    "RecordType" : "AtomicNumber",
    "ElementName" : "Lithium",
    "PropertyName" : "Atomic Weight",
    "PropertyValueString" : "6.941",
    "ReferenceNumber" : "5"
},
{
    "RecordNumber" : "3",
    "RecordType" : "AtomicNumber",
    "ElementName" : "Lithium",
    "PropertyName" : "Atomic Weight",
    "PropertyValueString" : "6.94",
    "ReferenceNumber" : "6"
},
{
    "RecordNumber" : "3",
    "RecordType" : "AtomicNumber",
    "ElementName" : "Lithium",
    "PropertyName" : "Atomic Weight",
    "PropertyValueString" : "[6.938,6.997]",
    "ReferenceNumber" : "7"
},
{
    "RecordNumber" : "3",
    "RecordType" : "AtomicNumber",
    "ElementName" : "Lithium",
    "PropertyName" : "Electron Configuration",
    "PropertyValueString" : "[He]2s1 ",
    "ReferenceNumber" : "6"
},
{
    "RecordNumber" : "3",
    "RecordType" : "AtomicNumber",
    "ElementName" : "Lithium",
    "PropertyName" : "Atomic Radius",
    "PropertyValueString" : "182 pm (Van der Waals)",
    "ReferenceNumber" : "6"
},
{
    "RecordNumber" : "3",
    "RecordType" : "AtomicNumber",
    "ElementName" : "Lithium",
    "PropertyName" : "Atomic Radius",
    "PropertyValueString" : "128(7) pm (Covalent)",
    "ReferenceNumber" : "9"
},
{
    "RecordNumber" : "3",
    "RecordType" : "AtomicNumber",
    "ElementName" : "Lithium",
    "PropertyName" : "Oxidation States",
    "PropertyValueString" : "+1",
    "ReferenceNumber" : "5"
},
{
    "RecordNumber" : "3",
    "RecordType" : "AtomicNumber",
    "ElementName" : "Lithium",
    "PropertyName" : "Oxidation States",
    "PropertyValueString" : "+1 ​(a strongly basic oxide)",
    "ReferenceNumber" : "6"
},
{
    "RecordNumber" : "3",
    "RecordType" : "AtomicNumber",
    "ElementName" : "Lithium",
    "PropertyName" : "Ground Level",
    "PropertyValueString" : "2S1/2",
    "ReferenceNumber" : "7"
},
{
    "RecordNumber" : "3",
    "RecordType" : "AtomicNumber",
    "ElementName" : "Lithium",
    "PropertyName" : "Ionization Energy",
    "PropertyValueString" : "5.392 eV",
    "ReferenceNumber" : "5"
},
{
    "RecordNumber" : "3",
    "RecordType" : "AtomicNumber",
    "ElementName" : "Lithium",
    "PropertyName" : "Ionization Energy",
    "PropertyValueString" : "5.391714996 ± 0.000000022 eV",
    "ReferenceNumber" : "7"
},
{
    "RecordNumber" : "3",
    "RecordType" : "AtomicNumber",
    "ElementName" : "Lithium",
    "PropertyName" : "Atomic Spectra",
    "PropertyValueString" : "Lines Holdings",
    "ReferenceNumber" : "7"
},
{
    "RecordNumber" : "3",
    "RecordType" : "AtomicNumber",
    "ElementName" : "Lithium",
    "PropertyName" : "Atomic Spectra",
    "PropertyValueString" : "Levels Holdings",
    "ReferenceNumber" : "7"
},
{
    "RecordNumber" : "3",
    "RecordType" : "AtomicNumber",
    "ElementName" : "Lithium",
    "PropertyName" : "Physical Description",
    "PropertyValueString" : "Solid",
    "ReferenceNumber" : "5"
},
{
    "RecordNumber" : "3",
    "RecordType" : "AtomicNumber",
    "ElementName" : "Lithium",
    "PropertyName" : "Element Classification",
    "PropertyValueString" : "Metal",
    "ReferenceNumber" : "5"
},
{
    "RecordNumber" : "3",
    "RecordType" : "AtomicNumber",
    "ElementName" : "Lithium",
    "PropertyName" : "Element Period Number",
    "PropertyValueString" : "2",
    "ReferenceNumber" : "5"
},
{
    "RecordNumber" : "3",
    "RecordType" : "AtomicNumber",
    "ElementName" : "Lithium",
    "PropertyName" : "Element Group Number",
    "PropertyValueString" : "1 - Alkali Metal",
    "ReferenceNumber" : "5"
},
{
    "RecordNumber" : "3",
    "RecordType" : "AtomicNumber",
    "ElementName" : "Lithium",
    "PropertyName" : "Density",
    "PropertyValueString" : "0.534 grams per cubic centimeter",
    "ReferenceNumber" : "5"
},
{
    "RecordNumber" : "3",
    "RecordType" : "AtomicNumber",
    "ElementName" : "Lithium",
    "PropertyName" : "Melting Point",
    "PropertyValueString" : "453.65 K (180.50°C or 356.90°F)",
    "ReferenceNumber" : "5"
},
{
    "RecordNumber" : "3",
    "RecordType" : "AtomicNumber",
    "ElementName" : "Lithium",
    "PropertyName" : "Melting Point",
    "PropertyValueString" : "180.5°C",
    "ReferenceNumber" : "6"
},
{
    "RecordNumber" : "3",
    "RecordType" : "AtomicNumber",
    "ElementName" : "Lithium",
    "PropertyName" : "Boiling Point",
    "PropertyValueString" : "1615 K (1342°C or 2448°F)",
    "ReferenceNumber" : "5"
},
{
    "RecordNumber" : "3",
    "RecordType" : "AtomicNumber",
    "ElementName" : "Lithium",
    "PropertyName" : "Boiling Point",
    "PropertyValueString" : "1330°C",
    "ReferenceNumber" : "6"
},
{
    "RecordNumber" : "3",
    "RecordType" : "AtomicNumber",
    "ElementName" : "Lithium",
    "PropertyName" : "Estimated Crustal Abundance",
    "PropertyValueString" : "2.0×101 milligrams per kilogram",
    "ReferenceNumber" : "5"
},
{
    "RecordNumber" : "3",
    "RecordType" : "AtomicNumber",
    "ElementName" : "Lithium",
    "PropertyName" : "Estimated Oceanic Abundance",
    "PropertyValueString" : "1.8×10-1 milligrams per liter",
    "ReferenceNumber" : "5"
}
]
}
